t 1 /NodeList/0/$ns3::Ipv4L3Protocol/Tx(2) ns3::Ipv4Header (tos 0x0 DSCP Default ECN Not-ECT ttl 64 id 0 protocol 6 offset (bytes) 0 flags [none] length: 56 164.70.2.1 > 164.70.7.2) ns3::TcpHeader (49153 > 4001 [ SYN ] Seq=0 Ack=0 Win=32768 ns3::TcpOptionWinScale(2) ns3::TcpOptionTS(1000;0) ns3::TcpOptionEnd(EOL))
+ 1 /NodeList/0/DeviceList/2/$ns3::PointToPointNetDevice/TxQueue/Enqueue ns3::PppHeader (Point-to-Point Protocol: IP (0x0021)) ns3::Ipv4Header (tos 0x0 DSCP Default ECN Not-ECT ttl 64 id 0 protocol 6 offset (bytes) 0 flags [none] length: 56 164.70.2.1 > 164.70.7.2) ns3::TcpHeader (49153 > 4001 [ SYN ] Seq=0 Ack=0 Win=32768 ns3::TcpOptionWinScale(2) ns3::TcpOptionTS(1000;0) ns3::TcpOptionEnd(EOL))
- 1 /NodeList/0/DeviceList/2/$ns3::PointToPointNetDevice/TxQueue/Dequeue ns3::PppHeader (Point-to-Point Protocol: IP (0x0021)) ns3::Ipv4Header (tos 0x0 DSCP Default ECN Not-ECT ttl 64 id 0 protocol 6 offset (bytes) 0 flags [none] length: 56 164.70.2.1 > 164.70.7.2) ns3::TcpHeader (49153 > 4001 [ SYN ] Seq=0 Ack=0 Win=32768 ns3::TcpOptionWinScale(2) ns3::TcpOptionTS(1000;0) ns3::TcpOptionEnd(EOL))
r 1.00405 /NodeList/2/DeviceList/1/$ns3::PointToPointNetDevice/MacRx ns3::PppHeader (Point-to-Point Protocol: IP (0x0021)) ns3::Ipv4Header (tos 0x0 DSCP Default ECN Not-ECT ttl 64 id 0 protocol 6 offset (bytes) 0 flags [none] length: 56 164.70.2.1 > 164.70.7.2) ns3::TcpHeader (49153 > 4001 [ SYN ] Seq=0 Ack=0 Win=32768 ns3::TcpOptionWinScale(2) ns3::TcpOptionTS(1000;0) ns3::TcpOptionEnd(EOL))
r 1.00405 /NodeList/2/$ns3::Ipv4L3Protocol/Rx(1) ns3::Ipv4Header (tos 0x0 DSCP Default ECN Not-ECT ttl 64 id 0 protocol 6 offset (bytes) 0 flags [none] length: 56 164.70.2.1 > 164.70.7.2) ns3::TcpHeader (49153 > 4001 [ SYN ] Seq=0 Ack=0 Win=32768 ns3::TcpOptionWinScale(2) ns3::TcpOptionTS(1000;0) ns3::TcpOptionEnd(EOL))
t 1.00405 /NodeList/2/$ns3::Ipv4L3Protocol/Tx(2) ns3::Ipv4Header (tos 0x0 DSCP Default ECN Not-ECT ttl 63 id 0 protocol 6 offset (bytes) 0 flags [none] length: 56 164.70.2.1 > 164.70.7.2) ns3::TcpHeader (49153 > 4001 [ SYN ] Seq=0 Ack=0 Win=32768 ns3::TcpOptionWinScale(2) ns3::TcpOptionTS(1000;0) ns3::TcpOptionEnd(EOL))
+ 1.00405 /NodeList/2/DeviceList/2/$ns3::PointToPointNetDevice/TxQueue/Enqueue ns3::PppHeader (Point-to-Point Protocol: IP (0x0021)) ns3::Ipv4Header (tos 0x0 DSCP Default ECN Not-ECT ttl 63 id 0 protocol 6 offset (bytes) 0 flags [none] length: 56 164.70.2.1 > 164.70.7.2) ns3::TcpHeader (49153 > 4001 [ SYN ] Seq=0 Ack=0 Win=32768 ns3::TcpOptionWinScale(2) ns3::TcpOptionTS(1000;0) ns3::TcpOptionEnd(EOL))
- 1.00405 /NodeList/2/DeviceList/2/$ns3::PointToPointNetDevice/TxQueue/Dequeue ns3::PppHeader (Point-to-Point Protocol: IP (0x0021)) ns3::Ipv4Header (tos 0x0 DSCP Default ECN Not-ECT ttl 63 id 0 protocol 6 offset (bytes) 0 flags [none] length: 56 164.70.2.1 > 164.70.7.2) ns3::TcpHeader (49153 > 4001 [ SYN ] Seq=0 Ack=0 Win=32768 ns3::TcpOptionWinScale(2) ns3::TcpOptionTS(1000;0) ns3::TcpOptionEnd(EOL))
r 1.00609 /NodeList/4/DeviceList/2/$ns3::PointToPointNetDevice/MacRx ns3::PppHeader (Point-to-Point Protocol: IP (0x0021)) ns3::Ipv4Header (tos 0x0 DSCP Default ECN Not-ECT ttl 63 id 0 protocol 6 offset (bytes) 0 flags [none] length: 56 164.70.2.1 > 164.70.7.2) ns3::TcpHeader (49153 > 4001 [ SYN ] Seq=0 Ack=0 Win=32768 ns3::TcpOptionWinScale(2) ns3::TcpOptionTS(1000;0) ns3::TcpOptionEnd(EOL))
r 1.00609 /NodeList/4/$ns3::Ipv4L3Protocol/Rx(2) ns3::Ipv4Header (tos 0x0 DSCP Default ECN Not-ECT ttl 63 id 0 protocol 6 offset (bytes) 0 flags [none] length: 56 164.70.2.1 > 164.70.7.2) ns3::TcpHeader (49153 > 4001 [ SYN ] Seq=0 Ack=0 Win=32768 ns3::TcpOptionWinScale(2) ns3::TcpOptionTS(1000;0) ns3::TcpOptionEnd(EOL))
t 1.00609 /NodeList/4/$ns3::Ipv4L3Protocol/Tx(4) ns3::Ipv4Header (tos 0x0 DSCP Default ECN Not-ECT ttl 62 id 0 protocol 6 offset (bytes) 0 flags [none] length: 56 164.70.2.1 > 164.70.7.2) ns3::TcpHeader (49153 > 4001 [ SYN ] Seq=0 Ack=0 Win=32768 ns3::TcpOptionWinScale(2) ns3::TcpOptionTS(1000;0) ns3::TcpOptionEnd(EOL))
+ 1.00609 /NodeList/4/DeviceList/4/$ns3::PointToPointNetDevice/TxQueue/Enqueue ns3::PppHeader (Point-to-Point Protocol: IP (0x0021)) ns3::Ipv4Header (tos 0x0 DSCP Default ECN Not-ECT ttl 62 id 0 protocol 6 offset (bytes) 0 flags [none] length: 56 164.70.2.1 > 164.70.7.2) ns3::TcpHeader (49153 > 4001 [ SYN ] Seq=0 Ack=0 Win=32768 ns3::TcpOptionWinScale(2) ns3::TcpOptionTS(1000;0) ns3::TcpOptionEnd(EOL))
- 1.00609 /NodeList/4/DeviceList/4/$ns3::PointToPointNetDevice/TxQueue/Dequeue ns3::PppHeader (Point-to-Point Protocol: IP (0x0021)) ns3::Ipv4Header (tos 0x0 DSCP Default ECN Not-ECT ttl 62 id 0 protocol 6 offset (bytes) 0 flags [none] length: 56 164.70.2.1 > 164.70.7.2) ns3::TcpHeader (49153 > 4001 [ SYN ] Seq=0 Ack=0 Win=32768 ns3::TcpOptionWinScale(2) ns3::TcpOptionTS(1000;0) ns3::TcpOptionEnd(EOL))
r 1.00614 /NodeList/5/DeviceList/1/$ns3::PointToPointNetDevice/MacRx ns3::PppHeader (Point-to-Point Protocol: IP (0x0021)) ns3::Ipv4Header (tos 0x0 DSCP Default ECN Not-ECT ttl 62 id 0 protocol 6 offset (bytes) 0 flags [none] length: 56 164.70.2.1 > 164.70.7.2) ns3::TcpHeader (49153 > 4001 [ SYN ] Seq=0 Ack=0 Win=32768 ns3::TcpOptionWinScale(2) ns3::TcpOptionTS(1000;0) ns3::TcpOptionEnd(EOL))
r 1.00614 /NodeList/5/$ns3::Ipv4L3Protocol/Rx(1) ns3::Ipv4Header (tos 0x0 DSCP Default ECN Not-ECT ttl 62 id 0 protocol 6 offset (bytes) 0 flags [none] length: 56 164.70.2.1 > 164.70.7.2) ns3::TcpHeader (49153 > 4001 [ SYN ] Seq=0 Ack=0 Win=32768 ns3::TcpOptionWinScale(2) ns3::TcpOptionTS(1000;0) ns3::TcpOptionEnd(EOL))
t 1.00614 /NodeList/5/$ns3::Ipv4L3Protocol/Tx(1) ns3::Ipv4Header (tos 0x0 DSCP Default ECN Not-ECT ttl 64 id 0 protocol 6 offset (bytes) 0 flags [none] length: 56 164.70.7.2 > 164.70.2.1) ns3::TcpHeader (4001 > 49153 [ SYN  ACK ] Seq=0 Ack=1 Win=32768 ns3::TcpOptionWinScale(2) ns3::TcpOptionTS(1006;1000) ns3::TcpOptionEnd(EOL))
+ 1.00614 /NodeList/5/DeviceList/1/$ns3::PointToPointNetDevice/TxQueue/Enqueue ns3::PppHeader (Point-to-Point Protocol: IP (0x0021)) ns3::Ipv4Header (tos 0x0 DSCP Default ECN Not-ECT ttl 64 id 0 protocol 6 offset (bytes) 0 flags [none] length: 56 164.70.7.2 > 164.70.2.1) ns3::TcpHeader (4001 > 49153 [ SYN  ACK ] Seq=0 Ack=1 Win=32768 ns3::TcpOptionWinScale(2) ns3::TcpOptionTS(1006;1000) ns3::TcpOptionEnd(EOL))
- 1.00614 /NodeList/5/DeviceList/1/$ns3::PointToPointNetDevice/TxQueue/Dequeue ns3::PppHeader (Point-to-Point Protocol: IP (0x0021)) ns3::Ipv4Header (tos 0x0 DSCP Default ECN Not-ECT ttl 64 id 0 protocol 6 offset (bytes) 0 flags [none] length: 56 164.70.7.2 > 164.70.2.1) ns3::TcpHeader (4001 > 49153 [ SYN  ACK ] Seq=0 Ack=1 Win=32768 ns3::TcpOptionWinScale(2) ns3::TcpOptionTS(1006;1000) ns3::TcpOptionEnd(EOL))
r 1.00619 /NodeList/4/DeviceList/4/$ns3::PointToPointNetDevice/MacRx ns3::PppHeader (Point-to-Point Protocol: IP (0x0021)) ns3::Ipv4Header (tos 0x0 DSCP Default ECN Not-ECT ttl 64 id 0 protocol 6 offset (bytes) 0 flags [none] length: 56 164.70.7.2 > 164.70.2.1) ns3::TcpHeader (4001 > 49153 [ SYN  ACK ] Seq=0 Ack=1 Win=32768 ns3::TcpOptionWinScale(2) ns3::TcpOptionTS(1006;1000) ns3::TcpOptionEnd(EOL))
r 1.00619 /NodeList/4/$ns3::Ipv4L3Protocol/Rx(4) ns3::Ipv4Header (tos 0x0 DSCP Default ECN Not-ECT ttl 64 id 0 protocol 6 offset (bytes) 0 flags [none] length: 56 164.70.7.2 > 164.70.2.1) ns3::TcpHeader (4001 > 49153 [ SYN  ACK ] Seq=0 Ack=1 Win=32768 ns3::TcpOptionWinScale(2) ns3::TcpOptionTS(1006;1000) ns3::TcpOptionEnd(EOL))
t 1.00619 /NodeList/4/$ns3::Ipv4L3Protocol/Tx(2) ns3::Ipv4Header (tos 0x0 DSCP Default ECN Not-ECT ttl 63 id 0 protocol 6 offset (bytes) 0 flags [none] length: 56 164.70.7.2 > 164.70.2.1) ns3::TcpHeader (4001 > 49153 [ SYN  ACK ] Seq=0 Ack=1 Win=32768 ns3::TcpOptionWinScale(2) ns3::TcpOptionTS(1006;1000) ns3::TcpOptionEnd(EOL))
+ 1.00619 /NodeList/4/DeviceList/2/$ns3::PointToPointNetDevice/TxQueue/Enqueue ns3::PppHeader (Point-to-Point Protocol: IP (0x0021)) ns3::Ipv4Header (tos 0x0 DSCP Default ECN Not-ECT ttl 63 id 0 protocol 6 offset (bytes) 0 flags [none] length: 56 164.70.7.2 > 164.70.2.1) ns3::TcpHeader (4001 > 49153 [ SYN  ACK ] Seq=0 Ack=1 Win=32768 ns3::TcpOptionWinScale(2) ns3::TcpOptionTS(1006;1000) ns3::TcpOptionEnd(EOL))
- 1.00619 /NodeList/4/DeviceList/2/$ns3::PointToPointNetDevice/TxQueue/Dequeue ns3::PppHeader (Point-to-Point Protocol: IP (0x0021)) ns3::Ipv4Header (tos 0x0 DSCP Default ECN Not-ECT ttl 63 id 0 protocol 6 offset (bytes) 0 flags [none] length: 56 164.70.7.2 > 164.70.2.1) ns3::TcpHeader (4001 > 49153 [ SYN  ACK ] Seq=0 Ack=1 Win=32768 ns3::TcpOptionWinScale(2) ns3::TcpOptionTS(1006;1000) ns3::TcpOptionEnd(EOL))
r 1.00823 /NodeList/2/DeviceList/2/$ns3::PointToPointNetDevice/MacRx ns3::PppHeader (Point-to-Point Protocol: IP (0x0021)) ns3::Ipv4Header (tos 0x0 DSCP Default ECN Not-ECT ttl 63 id 0 protocol 6 offset (bytes) 0 flags [none] length: 56 164.70.7.2 > 164.70.2.1) ns3::TcpHeader (4001 > 49153 [ SYN  ACK ] Seq=0 Ack=1 Win=32768 ns3::TcpOptionWinScale(2) ns3::TcpOptionTS(1006;1000) ns3::TcpOptionEnd(EOL))
r 1.00823 /NodeList/2/$ns3::Ipv4L3Protocol/Rx(2) ns3::Ipv4Header (tos 0x0 DSCP Default ECN Not-ECT ttl 63 id 0 protocol 6 offset (bytes) 0 flags [none] length: 56 164.70.7.2 > 164.70.2.1) ns3::TcpHeader (4001 > 49153 [ SYN  ACK ] Seq=0 Ack=1 Win=32768 ns3::TcpOptionWinScale(2) ns3::TcpOptionTS(1006;1000) ns3::TcpOptionEnd(EOL))
t 1.00823 /NodeList/2/$ns3::Ipv4L3Protocol/Tx(1) ns3::Ipv4Header (tos 0x0 DSCP Default ECN Not-ECT ttl 62 id 0 protocol 6 offset (bytes) 0 flags [none] length: 56 164.70.7.2 > 164.70.2.1) ns3::TcpHeader (4001 > 49153 [ SYN  ACK ] Seq=0 Ack=1 Win=32768 ns3::TcpOptionWinScale(2) ns3::TcpOptionTS(1006;1000) ns3::TcpOptionEnd(EOL))
+ 1.00823 /NodeList/2/DeviceList/1/$ns3::PointToPointNetDevice/TxQueue/Enqueue ns3::PppHeader (Point-to-Point Protocol: IP (0x0021)) ns3::Ipv4Header (tos 0x0 DSCP Default ECN Not-ECT ttl 62 id 0 protocol 6 offset (bytes) 0 flags [none] length: 56 164.70.7.2 > 164.70.2.1) ns3::TcpHeader (4001 > 49153 [ SYN  ACK ] Seq=0 Ack=1 Win=32768 ns3::TcpOptionWinScale(2) ns3::TcpOptionTS(1006;1000) ns3::TcpOptionEnd(EOL))
- 1.00823 /NodeList/2/DeviceList/1/$ns3::PointToPointNetDevice/TxQueue/Dequeue ns3::PppHeader (Point-to-Point Protocol: IP (0x0021)) ns3::Ipv4Header (tos 0x0 DSCP Default ECN Not-ECT ttl 62 id 0 protocol 6 offset (bytes) 0 flags [none] length: 56 164.70.7.2 > 164.70.2.1) ns3::TcpHeader (4001 > 49153 [ SYN  ACK ] Seq=0 Ack=1 Win=32768 ns3::TcpOptionWinScale(2) ns3::TcpOptionTS(1006;1000) ns3::TcpOptionEnd(EOL))
r 1.01228 /NodeList/0/DeviceList/2/$ns3::PointToPointNetDevice/MacRx ns3::PppHeader (Point-to-Point Protocol: IP (0x0021)) ns3::Ipv4Header (tos 0x0 DSCP Default ECN Not-ECT ttl 62 id 0 protocol 6 offset (bytes) 0 flags [none] length: 56 164.70.7.2 > 164.70.2.1) ns3::TcpHeader (4001 > 49153 [ SYN  ACK ] Seq=0 Ack=1 Win=32768 ns3::TcpOptionWinScale(2) ns3::TcpOptionTS(1006;1000) ns3::TcpOptionEnd(EOL))
r 1.01228 /NodeList/0/$ns3::Ipv4L3Protocol/Rx(2) ns3::Ipv4Header (tos 0x0 DSCP Default ECN Not-ECT ttl 62 id 0 protocol 6 offset (bytes) 0 flags [none] length: 56 164.70.7.2 > 164.70.2.1) ns3::TcpHeader (4001 > 49153 [ SYN  ACK ] Seq=0 Ack=1 Win=32768 ns3::TcpOptionWinScale(2) ns3::TcpOptionTS(1006;1000) ns3::TcpOptionEnd(EOL))
t 1.01228 /NodeList/0/$ns3::Ipv4L3Protocol/Tx(2) ns3::Ipv4Header (tos 0x0 DSCP Default ECN Not-ECT ttl 64 id 1 protocol 6 offset (bytes) 0 flags [none] length: 52 164.70.2.1 > 164.70.7.2) ns3::TcpHeader (49153 > 4001 [ ACK ] Seq=1 Ack=1 Win=32768 ns3::TcpOptionTS(1012;1006) ns3::TcpOptionEnd(EOL))
+ 1.01228 /NodeList/0/DeviceList/2/$ns3::PointToPointNetDevice/TxQueue/Enqueue ns3::PppHeader (Point-to-Point Protocol: IP (0x0021)) ns3::Ipv4Header (tos 0x0 DSCP Default ECN Not-ECT ttl 64 id 1 protocol 6 offset (bytes) 0 flags [none] length: 52 164.70.2.1 > 164.70.7.2) ns3::TcpHeader (49153 > 4001 [ ACK ] Seq=1 Ack=1 Win=32768 ns3::TcpOptionTS(1012;1006) ns3::TcpOptionEnd(EOL))
- 1.01228 /NodeList/0/DeviceList/2/$ns3::PointToPointNetDevice/TxQueue/Dequeue ns3::PppHeader (Point-to-Point Protocol: IP (0x0021)) ns3::Ipv4Header (tos 0x0 DSCP Default ECN Not-ECT ttl 64 id 1 protocol 6 offset (bytes) 0 flags [none] length: 52 164.70.2.1 > 164.70.7.2) ns3::TcpHeader (49153 > 4001 [ ACK ] Seq=1 Ack=1 Win=32768 ns3::TcpOptionTS(1012;1006) ns3::TcpOptionEnd(EOL))
t 1.01228 /NodeList/0/$ns3::Ipv4L3Protocol/Tx(2) ns3::Ipv4Header (tos 0x0 DSCP Default ECN Not-ECT ttl 64 id 2 protocol 6 offset (bytes) 0 flags [none] length: 202 164.70.2.1 > 164.70.7.2) ns3::TcpHeader (49153 > 4001 [ ACK ] Seq=1 Ack=1 Win=32768 ns3::TcpOptionTS(1012;1006) ns3::TcpOptionEnd(EOL)) Payload (size=150)
+ 1.01228 /NodeList/0/DeviceList/2/$ns3::PointToPointNetDevice/TxQueue/Enqueue ns3::PppHeader (Point-to-Point Protocol: IP (0x0021)) ns3::Ipv4Header (tos 0x0 DSCP Default ECN Not-ECT ttl 64 id 2 protocol 6 offset (bytes) 0 flags [none] length: 202 164.70.2.1 > 164.70.7.2) ns3::TcpHeader (49153 > 4001 [ ACK ] Seq=1 Ack=1 Win=32768 ns3::TcpOptionTS(1012;1006) ns3::TcpOptionEnd(EOL)) Payload (size=150)
- 1.01232 /NodeList/0/DeviceList/2/$ns3::PointToPointNetDevice/TxQueue/Dequeue ns3::PppHeader (Point-to-Point Protocol: IP (0x0021)) ns3::Ipv4Header (tos 0x0 DSCP Default ECN Not-ECT ttl 64 id 2 protocol 6 offset (bytes) 0 flags [none] length: 202 164.70.2.1 > 164.70.7.2) ns3::TcpHeader (49153 > 4001 [ ACK ] Seq=1 Ack=1 Win=32768 ns3::TcpOptionTS(1012;1006) ns3::TcpOptionEnd(EOL)) Payload (size=150)
r 1.01632 /NodeList/2/DeviceList/1/$ns3::PointToPointNetDevice/MacRx ns3::PppHeader (Point-to-Point Protocol: IP (0x0021)) ns3::Ipv4Header (tos 0x0 DSCP Default ECN Not-ECT ttl 64 id 1 protocol 6 offset (bytes) 0 flags [none] length: 52 164.70.2.1 > 164.70.7.2) ns3::TcpHeader (49153 > 4001 [ ACK ] Seq=1 Ack=1 Win=32768 ns3::TcpOptionTS(1012;1006) ns3::TcpOptionEnd(EOL))
r 1.01632 /NodeList/2/$ns3::Ipv4L3Protocol/Rx(1) ns3::Ipv4Header (tos 0x0 DSCP Default ECN Not-ECT ttl 64 id 1 protocol 6 offset (bytes) 0 flags [none] length: 52 164.70.2.1 > 164.70.7.2) ns3::TcpHeader (49153 > 4001 [ ACK ] Seq=1 Ack=1 Win=32768 ns3::TcpOptionTS(1012;1006) ns3::TcpOptionEnd(EOL))
t 1.01632 /NodeList/2/$ns3::Ipv4L3Protocol/Tx(2) ns3::Ipv4Header (tos 0x0 DSCP Default ECN Not-ECT ttl 63 id 1 protocol 6 offset (bytes) 0 flags [none] length: 52 164.70.2.1 > 164.70.7.2) ns3::TcpHeader (49153 > 4001 [ ACK ] Seq=1 Ack=1 Win=32768 ns3::TcpOptionTS(1012;1006) ns3::TcpOptionEnd(EOL))
+ 1.01632 /NodeList/2/DeviceList/2/$ns3::PointToPointNetDevice/TxQueue/Enqueue ns3::PppHeader (Point-to-Point Protocol: IP (0x0021)) ns3::Ipv4Header (tos 0x0 DSCP Default ECN Not-ECT ttl 63 id 1 protocol 6 offset (bytes) 0 flags [none] length: 52 164.70.2.1 > 164.70.7.2) ns3::TcpHeader (49153 > 4001 [ ACK ] Seq=1 Ack=1 Win=32768 ns3::TcpOptionTS(1012;1006) ns3::TcpOptionEnd(EOL))
- 1.01632 /NodeList/2/DeviceList/2/$ns3::PointToPointNetDevice/TxQueue/Dequeue ns3::PppHeader (Point-to-Point Protocol: IP (0x0021)) ns3::Ipv4Header (tos 0x0 DSCP Default ECN Not-ECT ttl 63 id 1 protocol 6 offset (bytes) 0 flags [none] length: 52 164.70.2.1 > 164.70.7.2) ns3::TcpHeader (49153 > 4001 [ ACK ] Seq=1 Ack=1 Win=32768 ns3::TcpOptionTS(1012;1006) ns3::TcpOptionEnd(EOL))
r 1.01648 /NodeList/2/DeviceList/1/$ns3::PointToPointNetDevice/MacRx ns3::PppHeader (Point-to-Point Protocol: IP (0x0021)) ns3::Ipv4Header (tos 0x0 DSCP Default ECN Not-ECT ttl 64 id 2 protocol 6 offset (bytes) 0 flags [none] length: 202 164.70.2.1 > 164.70.7.2) ns3::TcpHeader (49153 > 4001 [ ACK ] Seq=1 Ack=1 Win=32768 ns3::TcpOptionTS(1012;1006) ns3::TcpOptionEnd(EOL)) Payload (size=150)
r 1.01648 /NodeList/2/$ns3::Ipv4L3Protocol/Rx(1) ns3::Ipv4Header (tos 0x0 DSCP Default ECN Not-ECT ttl 64 id 2 protocol 6 offset (bytes) 0 flags [none] length: 202 164.70.2.1 > 164.70.7.2) ns3::TcpHeader (49153 > 4001 [ ACK ] Seq=1 Ack=1 Win=32768 ns3::TcpOptionTS(1012;1006) ns3::TcpOptionEnd(EOL)) Payload (size=150)
t 1.01648 /NodeList/2/$ns3::Ipv4L3Protocol/Tx(2) ns3::Ipv4Header (tos 0x0 DSCP Default ECN Not-ECT ttl 63 id 2 protocol 6 offset (bytes) 0 flags [none] length: 202 164.70.2.1 > 164.70.7.2) ns3::TcpHeader (49153 > 4001 [ ACK ] Seq=1 Ack=1 Win=32768 ns3::TcpOptionTS(1012;1006) ns3::TcpOptionEnd(EOL)) Payload (size=150)
+ 1.01648 /NodeList/2/DeviceList/2/$ns3::PointToPointNetDevice/TxQueue/Enqueue ns3::PppHeader (Point-to-Point Protocol: IP (0x0021)) ns3::Ipv4Header (tos 0x0 DSCP Default ECN Not-ECT ttl 63 id 2 protocol 6 offset (bytes) 0 flags [none] length: 202 164.70.2.1 > 164.70.7.2) ns3::TcpHeader (49153 > 4001 [ ACK ] Seq=1 Ack=1 Win=32768 ns3::TcpOptionTS(1012;1006) ns3::TcpOptionEnd(EOL)) Payload (size=150)
- 1.01648 /NodeList/2/DeviceList/2/$ns3::PointToPointNetDevice/TxQueue/Dequeue ns3::PppHeader (Point-to-Point Protocol: IP (0x0021)) ns3::Ipv4Header (tos 0x0 DSCP Default ECN Not-ECT ttl 63 id 2 protocol 6 offset (bytes) 0 flags [none] length: 202 164.70.2.1 > 164.70.7.2) ns3::TcpHeader (49153 > 4001 [ ACK ] Seq=1 Ack=1 Win=32768 ns3::TcpOptionTS(1012;1006) ns3::TcpOptionEnd(EOL)) Payload (size=150)
r 1.01836 /NodeList/4/DeviceList/2/$ns3::PointToPointNetDevice/MacRx ns3::PppHeader (Point-to-Point Protocol: IP (0x0021)) ns3::Ipv4Header (tos 0x0 DSCP Default ECN Not-ECT ttl 63 id 1 protocol 6 offset (bytes) 0 flags [none] length: 52 164.70.2.1 > 164.70.7.2) ns3::TcpHeader (49153 > 4001 [ ACK ] Seq=1 Ack=1 Win=32768 ns3::TcpOptionTS(1012;1006) ns3::TcpOptionEnd(EOL))
r 1.01836 /NodeList/4/$ns3::Ipv4L3Protocol/Rx(2) ns3::Ipv4Header (tos 0x0 DSCP Default ECN Not-ECT ttl 63 id 1 protocol 6 offset (bytes) 0 flags [none] length: 52 164.70.2.1 > 164.70.7.2) ns3::TcpHeader (49153 > 4001 [ ACK ] Seq=1 Ack=1 Win=32768 ns3::TcpOptionTS(1012;1006) ns3::TcpOptionEnd(EOL))
t 1.01836 /NodeList/4/$ns3::Ipv4L3Protocol/Tx(4) ns3::Ipv4Header (tos 0x0 DSCP Default ECN Not-ECT ttl 62 id 1 protocol 6 offset (bytes) 0 flags [none] length: 52 164.70.2.1 > 164.70.7.2) ns3::TcpHeader (49153 > 4001 [ ACK ] Seq=1 Ack=1 Win=32768 ns3::TcpOptionTS(1012;1006) ns3::TcpOptionEnd(EOL))
+ 1.01836 /NodeList/4/DeviceList/4/$ns3::PointToPointNetDevice/TxQueue/Enqueue ns3::PppHeader (Point-to-Point Protocol: IP (0x0021)) ns3::Ipv4Header (tos 0x0 DSCP Default ECN Not-ECT ttl 62 id 1 protocol 6 offset (bytes) 0 flags [none] length: 52 164.70.2.1 > 164.70.7.2) ns3::TcpHeader (49153 > 4001 [ ACK ] Seq=1 Ack=1 Win=32768 ns3::TcpOptionTS(1012;1006) ns3::TcpOptionEnd(EOL))
- 1.01836 /NodeList/4/DeviceList/4/$ns3::PointToPointNetDevice/TxQueue/Dequeue ns3::PppHeader (Point-to-Point Protocol: IP (0x0021)) ns3::Ipv4Header (tos 0x0 DSCP Default ECN Not-ECT ttl 62 id 1 protocol 6 offset (bytes) 0 flags [none] length: 52 164.70.2.1 > 164.70.7.2) ns3::TcpHeader (49153 > 4001 [ ACK ] Seq=1 Ack=1 Win=32768 ns3::TcpOptionTS(1012;1006) ns3::TcpOptionEnd(EOL))
r 1.01841 /NodeList/5/DeviceList/1/$ns3::PointToPointNetDevice/MacRx ns3::PppHeader (Point-to-Point Protocol: IP (0x0021)) ns3::Ipv4Header (tos 0x0 DSCP Default ECN Not-ECT ttl 62 id 1 protocol 6 offset (bytes) 0 flags [none] length: 52 164.70.2.1 > 164.70.7.2) ns3::TcpHeader (49153 > 4001 [ ACK ] Seq=1 Ack=1 Win=32768 ns3::TcpOptionTS(1012;1006) ns3::TcpOptionEnd(EOL))
r 1.01841 /NodeList/5/$ns3::Ipv4L3Protocol/Rx(1) ns3::Ipv4Header (tos 0x0 DSCP Default ECN Not-ECT ttl 62 id 1 protocol 6 offset (bytes) 0 flags [none] length: 52 164.70.2.1 > 164.70.7.2) ns3::TcpHeader (49153 > 4001 [ ACK ] Seq=1 Ack=1 Win=32768 ns3::TcpOptionTS(1012;1006) ns3::TcpOptionEnd(EOL))
r 1.01865 /NodeList/4/DeviceList/2/$ns3::PointToPointNetDevice/MacRx ns3::PppHeader (Point-to-Point Protocol: IP (0x0021)) ns3::Ipv4Header (tos 0x0 DSCP Default ECN Not-ECT ttl 63 id 2 protocol 6 offset (bytes) 0 flags [none] length: 202 164.70.2.1 > 164.70.7.2) ns3::TcpHeader (49153 > 4001 [ ACK ] Seq=1 Ack=1 Win=32768 ns3::TcpOptionTS(1012;1006) ns3::TcpOptionEnd(EOL)) Payload (size=150)
r 1.01865 /NodeList/4/$ns3::Ipv4L3Protocol/Rx(2) ns3::Ipv4Header (tos 0x0 DSCP Default ECN Not-ECT ttl 63 id 2 protocol 6 offset (bytes) 0 flags [none] length: 202 164.70.2.1 > 164.70.7.2) ns3::TcpHeader (49153 > 4001 [ ACK ] Seq=1 Ack=1 Win=32768 ns3::TcpOptionTS(1012;1006) ns3::TcpOptionEnd(EOL)) Payload (size=150)
t 1.01865 /NodeList/4/$ns3::Ipv4L3Protocol/Tx(4) ns3::Ipv4Header (tos 0x0 DSCP Default ECN Not-ECT ttl 62 id 2 protocol 6 offset (bytes) 0 flags [none] length: 202 164.70.2.1 > 164.70.7.2) ns3::TcpHeader (49153 > 4001 [ ACK ] Seq=1 Ack=1 Win=32768 ns3::TcpOptionTS(1012;1006) ns3::TcpOptionEnd(EOL)) Payload (size=150)
+ 1.01865 /NodeList/4/DeviceList/4/$ns3::PointToPointNetDevice/TxQueue/Enqueue ns3::PppHeader (Point-to-Point Protocol: IP (0x0021)) ns3::Ipv4Header (tos 0x0 DSCP Default ECN Not-ECT ttl 62 id 2 protocol 6 offset (bytes) 0 flags [none] length: 202 164.70.2.1 > 164.70.7.2) ns3::TcpHeader (49153 > 4001 [ ACK ] Seq=1 Ack=1 Win=32768 ns3::TcpOptionTS(1012;1006) ns3::TcpOptionEnd(EOL)) Payload (size=150)
- 1.01865 /NodeList/4/DeviceList/4/$ns3::PointToPointNetDevice/TxQueue/Dequeue ns3::PppHeader (Point-to-Point Protocol: IP (0x0021)) ns3::Ipv4Header (tos 0x0 DSCP Default ECN Not-ECT ttl 62 id 2 protocol 6 offset (bytes) 0 flags [none] length: 202 164.70.2.1 > 164.70.7.2) ns3::TcpHeader (49153 > 4001 [ ACK ] Seq=1 Ack=1 Win=32768 ns3::TcpOptionTS(1012;1006) ns3::TcpOptionEnd(EOL)) Payload (size=150)
r 1.01881 /NodeList/5/DeviceList/1/$ns3::PointToPointNetDevice/MacRx ns3::PppHeader (Point-to-Point Protocol: IP (0x0021)) ns3::Ipv4Header (tos 0x0 DSCP Default ECN Not-ECT ttl 62 id 2 protocol 6 offset (bytes) 0 flags [none] length: 202 164.70.2.1 > 164.70.7.2) ns3::TcpHeader (49153 > 4001 [ ACK ] Seq=1 Ack=1 Win=32768 ns3::TcpOptionTS(1012;1006) ns3::TcpOptionEnd(EOL)) Payload (size=150)
r 1.01881 /NodeList/5/$ns3::Ipv4L3Protocol/Rx(1) ns3::Ipv4Header (tos 0x0 DSCP Default ECN Not-ECT ttl 62 id 2 protocol 6 offset (bytes) 0 flags [none] length: 202 164.70.2.1 > 164.70.7.2) ns3::TcpHeader (49153 > 4001 [ ACK ] Seq=1 Ack=1 Win=32768 ns3::TcpOptionTS(1012;1006) ns3::TcpOptionEnd(EOL)) Payload (size=150)
t 1.01881 /NodeList/5/$ns3::Ipv4L3Protocol/Tx(1) ns3::Ipv4Header (tos 0x0 DSCP Default ECN Not-ECT ttl 64 id 1 protocol 6 offset (bytes) 0 flags [none] length: 52 164.70.7.2 > 164.70.2.1) ns3::TcpHeader (4001 > 49153 [ ACK ] Seq=1 Ack=151 Win=32730 ns3::TcpOptionTS(1018;1012) ns3::TcpOptionEnd(EOL))
+ 1.01881 /NodeList/5/DeviceList/1/$ns3::PointToPointNetDevice/TxQueue/Enqueue ns3::PppHeader (Point-to-Point Protocol: IP (0x0021)) ns3::Ipv4Header (tos 0x0 DSCP Default ECN Not-ECT ttl 64 id 1 protocol 6 offset (bytes) 0 flags [none] length: 52 164.70.7.2 > 164.70.2.1) ns3::TcpHeader (4001 > 49153 [ ACK ] Seq=1 Ack=151 Win=32730 ns3::TcpOptionTS(1018;1012) ns3::TcpOptionEnd(EOL))
- 1.01881 /NodeList/5/DeviceList/1/$ns3::PointToPointNetDevice/TxQueue/Dequeue ns3::PppHeader (Point-to-Point Protocol: IP (0x0021)) ns3::Ipv4Header (tos 0x0 DSCP Default ECN Not-ECT ttl 64 id 1 protocol 6 offset (bytes) 0 flags [none] length: 52 164.70.7.2 > 164.70.2.1) ns3::TcpHeader (4001 > 49153 [ ACK ] Seq=1 Ack=151 Win=32730 ns3::TcpOptionTS(1018;1012) ns3::TcpOptionEnd(EOL))
r 1.01885 /NodeList/4/DeviceList/4/$ns3::PointToPointNetDevice/MacRx ns3::PppHeader (Point-to-Point Protocol: IP (0x0021)) ns3::Ipv4Header (tos 0x0 DSCP Default ECN Not-ECT ttl 64 id 1 protocol 6 offset (bytes) 0 flags [none] length: 52 164.70.7.2 > 164.70.2.1) ns3::TcpHeader (4001 > 49153 [ ACK ] Seq=1 Ack=151 Win=32730 ns3::TcpOptionTS(1018;1012) ns3::TcpOptionEnd(EOL))
r 1.01885 /NodeList/4/$ns3::Ipv4L3Protocol/Rx(4) ns3::Ipv4Header (tos 0x0 DSCP Default ECN Not-ECT ttl 64 id 1 protocol 6 offset (bytes) 0 flags [none] length: 52 164.70.7.2 > 164.70.2.1) ns3::TcpHeader (4001 > 49153 [ ACK ] Seq=1 Ack=151 Win=32730 ns3::TcpOptionTS(1018;1012) ns3::TcpOptionEnd(EOL))
t 1.01885 /NodeList/4/$ns3::Ipv4L3Protocol/Tx(2) ns3::Ipv4Header (tos 0x0 DSCP Default ECN Not-ECT ttl 63 id 1 protocol 6 offset (bytes) 0 flags [none] length: 52 164.70.7.2 > 164.70.2.1) ns3::TcpHeader (4001 > 49153 [ ACK ] Seq=1 Ack=151 Win=32730 ns3::TcpOptionTS(1018;1012) ns3::TcpOptionEnd(EOL))
+ 1.01885 /NodeList/4/DeviceList/2/$ns3::PointToPointNetDevice/TxQueue/Enqueue ns3::PppHeader (Point-to-Point Protocol: IP (0x0021)) ns3::Ipv4Header (tos 0x0 DSCP Default ECN Not-ECT ttl 63 id 1 protocol 6 offset (bytes) 0 flags [none] length: 52 164.70.7.2 > 164.70.2.1) ns3::TcpHeader (4001 > 49153 [ ACK ] Seq=1 Ack=151 Win=32730 ns3::TcpOptionTS(1018;1012) ns3::TcpOptionEnd(EOL))
- 1.01885 /NodeList/4/DeviceList/2/$ns3::PointToPointNetDevice/TxQueue/Dequeue ns3::PppHeader (Point-to-Point Protocol: IP (0x0021)) ns3::Ipv4Header (tos 0x0 DSCP Default ECN Not-ECT ttl 63 id 1 protocol 6 offset (bytes) 0 flags [none] length: 52 164.70.7.2 > 164.70.2.1) ns3::TcpHeader (4001 > 49153 [ ACK ] Seq=1 Ack=151 Win=32730 ns3::TcpOptionTS(1018;1012) ns3::TcpOptionEnd(EOL))
r 1.0209 /NodeList/2/DeviceList/2/$ns3::PointToPointNetDevice/MacRx ns3::PppHeader (Point-to-Point Protocol: IP (0x0021)) ns3::Ipv4Header (tos 0x0 DSCP Default ECN Not-ECT ttl 63 id 1 protocol 6 offset (bytes) 0 flags [none] length: 52 164.70.7.2 > 164.70.2.1) ns3::TcpHeader (4001 > 49153 [ ACK ] Seq=1 Ack=151 Win=32730 ns3::TcpOptionTS(1018;1012) ns3::TcpOptionEnd(EOL))
r 1.0209 /NodeList/2/$ns3::Ipv4L3Protocol/Rx(2) ns3::Ipv4Header (tos 0x0 DSCP Default ECN Not-ECT ttl 63 id 1 protocol 6 offset (bytes) 0 flags [none] length: 52 164.70.7.2 > 164.70.2.1) ns3::TcpHeader (4001 > 49153 [ ACK ] Seq=1 Ack=151 Win=32730 ns3::TcpOptionTS(1018;1012) ns3::TcpOptionEnd(EOL))
t 1.0209 /NodeList/2/$ns3::Ipv4L3Protocol/Tx(1) ns3::Ipv4Header (tos 0x0 DSCP Default ECN Not-ECT ttl 62 id 1 protocol 6 offset (bytes) 0 flags [none] length: 52 164.70.7.2 > 164.70.2.1) ns3::TcpHeader (4001 > 49153 [ ACK ] Seq=1 Ack=151 Win=32730 ns3::TcpOptionTS(1018;1012) ns3::TcpOptionEnd(EOL))
+ 1.0209 /NodeList/2/DeviceList/1/$ns3::PointToPointNetDevice/TxQueue/Enqueue ns3::PppHeader (Point-to-Point Protocol: IP (0x0021)) ns3::Ipv4Header (tos 0x0 DSCP Default ECN Not-ECT ttl 62 id 1 protocol 6 offset (bytes) 0 flags [none] length: 52 164.70.7.2 > 164.70.2.1) ns3::TcpHeader (4001 > 49153 [ ACK ] Seq=1 Ack=151 Win=32730 ns3::TcpOptionTS(1018;1012) ns3::TcpOptionEnd(EOL))
- 1.0209 /NodeList/2/DeviceList/1/$ns3::PointToPointNetDevice/TxQueue/Dequeue ns3::PppHeader (Point-to-Point Protocol: IP (0x0021)) ns3::Ipv4Header (tos 0x0 DSCP Default ECN Not-ECT ttl 62 id 1 protocol 6 offset (bytes) 0 flags [none] length: 52 164.70.7.2 > 164.70.2.1) ns3::TcpHeader (4001 > 49153 [ ACK ] Seq=1 Ack=151 Win=32730 ns3::TcpOptionTS(1018;1012) ns3::TcpOptionEnd(EOL))
t 1.024 /NodeList/0/$ns3::Ipv4L3Protocol/Tx(2) ns3::Ipv4Header (tos 0x0 DSCP Default ECN Not-ECT ttl 64 id 3 protocol 6 offset (bytes) 0 flags [none] length: 202 164.70.2.1 > 164.70.7.2) ns3::TcpHeader (49153 > 4001 [ ACK ] Seq=151 Ack=1 Win=32768 ns3::TcpOptionTS(1024;1006) ns3::TcpOptionEnd(EOL)) Payload (size=150)
+ 1.024 /NodeList/0/DeviceList/2/$ns3::PointToPointNetDevice/TxQueue/Enqueue ns3::PppHeader (Point-to-Point Protocol: IP (0x0021)) ns3::Ipv4Header (tos 0x0 DSCP Default ECN Not-ECT ttl 64 id 3 protocol 6 offset (bytes) 0 flags [none] length: 202 164.70.2.1 > 164.70.7.2) ns3::TcpHeader (49153 > 4001 [ ACK ] Seq=151 Ack=1 Win=32768 ns3::TcpOptionTS(1024;1006) ns3::TcpOptionEnd(EOL)) Payload (size=150)
- 1.024 /NodeList/0/DeviceList/2/$ns3::PointToPointNetDevice/TxQueue/Dequeue ns3::PppHeader (Point-to-Point Protocol: IP (0x0021)) ns3::Ipv4Header (tos 0x0 DSCP Default ECN Not-ECT ttl 64 id 3 protocol 6 offset (bytes) 0 flags [none] length: 202 164.70.2.1 > 164.70.7.2) ns3::TcpHeader (49153 > 4001 [ ACK ] Seq=151 Ack=1 Win=32768 ns3::TcpOptionTS(1024;1006) ns3::TcpOptionEnd(EOL)) Payload (size=150)
r 1.02494 /NodeList/0/DeviceList/2/$ns3::PointToPointNetDevice/MacRx ns3::PppHeader (Point-to-Point Protocol: IP (0x0021)) ns3::Ipv4Header (tos 0x0 DSCP Default ECN Not-ECT ttl 62 id 1 protocol 6 offset (bytes) 0 flags [none] length: 52 164.70.7.2 > 164.70.2.1) ns3::TcpHeader (4001 > 49153 [ ACK ] Seq=1 Ack=151 Win=32730 ns3::TcpOptionTS(1018;1012) ns3::TcpOptionEnd(EOL))
r 1.02494 /NodeList/0/$ns3::Ipv4L3Protocol/Rx(2) ns3::Ipv4Header (tos 0x0 DSCP Default ECN Not-ECT ttl 62 id 1 protocol 6 offset (bytes) 0 flags [none] length: 52 164.70.7.2 > 164.70.2.1) ns3::TcpHeader (4001 > 49153 [ ACK ] Seq=1 Ack=151 Win=32730 ns3::TcpOptionTS(1018;1012) ns3::TcpOptionEnd(EOL))
r 1.02816 /NodeList/2/DeviceList/1/$ns3::PointToPointNetDevice/MacRx ns3::PppHeader (Point-to-Point Protocol: IP (0x0021)) ns3::Ipv4Header (tos 0x0 DSCP Default ECN Not-ECT ttl 64 id 3 protocol 6 offset (bytes) 0 flags [none] length: 202 164.70.2.1 > 164.70.7.2) ns3::TcpHeader (49153 > 4001 [ ACK ] Seq=151 Ack=1 Win=32768 ns3::TcpOptionTS(1024;1006) ns3::TcpOptionEnd(EOL)) Payload (size=150)
r 1.02816 /NodeList/2/$ns3::Ipv4L3Protocol/Rx(1) ns3::Ipv4Header (tos 0x0 DSCP Default ECN Not-ECT ttl 64 id 3 protocol 6 offset (bytes) 0 flags [none] length: 202 164.70.2.1 > 164.70.7.2) ns3::TcpHeader (49153 > 4001 [ ACK ] Seq=151 Ack=1 Win=32768 ns3::TcpOptionTS(1024;1006) ns3::TcpOptionEnd(EOL)) Payload (size=150)
t 1.02816 /NodeList/2/$ns3::Ipv4L3Protocol/Tx(2) ns3::Ipv4Header (tos 0x0 DSCP Default ECN Not-ECT ttl 63 id 3 protocol 6 offset (bytes) 0 flags [none] length: 202 164.70.2.1 > 164.70.7.2) ns3::TcpHeader (49153 > 4001 [ ACK ] Seq=151 Ack=1 Win=32768 ns3::TcpOptionTS(1024;1006) ns3::TcpOptionEnd(EOL)) Payload (size=150)
+ 1.02816 /NodeList/2/DeviceList/2/$ns3::PointToPointNetDevice/TxQueue/Enqueue ns3::PppHeader (Point-to-Point Protocol: IP (0x0021)) ns3::Ipv4Header (tos 0x0 DSCP Default ECN Not-ECT ttl 63 id 3 protocol 6 offset (bytes) 0 flags [none] length: 202 164.70.2.1 > 164.70.7.2) ns3::TcpHeader (49153 > 4001 [ ACK ] Seq=151 Ack=1 Win=32768 ns3::TcpOptionTS(1024;1006) ns3::TcpOptionEnd(EOL)) Payload (size=150)